# vtk DataFile Version 3.0
#This file was generated by the deal.II library on 2021/6/16 at 10:06:44
ASCII
DATASET UNSTRUCTURED_GRID

POINTS 3688 double
-1 -1 0
-0.875 -1 0
-1 -0.875 0
-0.875 -0.875 0
-0.875 -1 0
-0.75 -1 0
-0.875 -0.875 0
-0.75 -0.875 0
-1 -0.875 0
-0.875 -0.875 0
-1 -0.75 0
-0.875 -0.75 0
-0.875 -0.875 0
-0.75 -0.875 0
-0.875 -0.75 0
-0.75 -0.75 0
-0.75 -1 0
-0.625 -1 0
-0.75 -0.875 0
-0.625 -0.875 0
-0.625 -1 0
-0.5 -1 0
-0.625 -0.875 0
-0.5 -0.875 0
-0.75 -0.875 0
-0.625 -0.875 0
-0.75 -0.75 0
-0.625 -0.75 0
-0.625 -0.875 0
-0.5 -0.875 0
-0.625 -0.75 0
-0.5 -0.75 0
-1 -0.75 0
-0.875 -0.75 0
-1 -0.625 0
-0.875 -0.625 0
-0.875 -0.75 0
-0.75 -0.75 0
-0.875 -0.625 0
-0.75 -0.625 0
-1 -0.625 0
-0.875 -0.625 0
-1 -0.5 0
-0.875 -0.5 0
-0.875 -0.625 0
-0.75 -0.625 0
-0.875 -0.5 0
-0.75 -0.5 0
-0.75 -0.75 0
-0.625 -0.75 0
-0.75 -0.625 0
-0.625 -0.625 0
-0.625 -0.75 0
-0.5 -0.75 0
-0.625 -0.625 0
-0.5 -0.625 0
-0.75 -0.625 0
-0.625 -0.625 0
-0.75 -0.5 0
-0.625 -0.5 0
-0.625 -0.625 0
-0.5 -0.625 0
-0.625 -0.5 0
-0.5 -0.5 0
-0.5 -1 0
-0.375 -1 0
-0.5 -0.875 0
-0.375 -0.875 0
-0.375 -1 0
-0.25 -1 0
-0.375 -0.875 0
-0.25 -0.875 0
-0.5 -0.875 0
-0.375 -0.875 0
-0.5 -0.75 0
-0.375 -0.75 0
-0.375 -0.875 0
-0.25 -0.875 0
-0.375 -0.75 0
-0.25 -0.75 0
-0.25 -1 0
-0.125 -1 0
-0.25 -0.875 0
-0.125 -0.875 0
-0.125 -1 0
0 -1 0
-0.125 -0.875 0
0 -0.875 0
-0.25 -0.875 0
-0.125 -0.875 0
-0.25 -0.75 0
-0.125 -0.75 0
-0.125 -0.875 0
0 -0.875 0
-0.125 -0.75 0
0 -0.75 0
-0.5 -0.75 0
-0.375 -0.75 0
-0.5 -0.625 0
-0.375 -0.625 0
-0.375 -0.75 0
-0.25 -0.75 0
-0.375 -0.625 0
-0.25 -0.625 0
-0.5 -0.625 0
-0.375 -0.625 0
-0.5 -0.5 0
-0.375 -0.5 0
-0.375 -0.625 0
-0.25 -0.625 0
-0.375 -0.5 0
-0.25 -0.5 0
-0.25 -0.75 0
-0.125 -0.75 0
-0.25 -0.625 0
-0.125 -0.625 0
-0.125 -0.75 0
0 -0.75 0
-0.125 -0.625 0
0 -0.625 0
-0.25 -0.625 0
-0.125 -0.625 0
-0.25 -0.5 0
-0.125 -0.5 0
-0.125 -0.625 0
0 -0.625 0
-0.125 -0.5 0
0 -0.5 0
-1 -0.5 0
-0.875 -0.5 0
-1 -0.375 0
-0.875 -0.375 0
-0.875 -0.5 0
-0.75 -0.5 0
-0.875 -0.375 0
-0.75 -0.375 0
-1 -0.375 0
-0.875 -0.375 0
-1 -0.25 0
-0.875 -0.25 0
-0.75 -0.5 0
-0.625 -0.5 0
-0.75 -0.375 0
-0.625 -0.375 0
-0.625 -0.5 0
-0.5 -0.5 0
-0.625 -0.375 0
-0.5 -0.375 0
-1 -0.25 0
-0.875 -0.25 0
-1 -0.125 0
-0.875 -0.125 0
-1 -0.125 0
-0.875 -0.125 0
-1 0 0
-0.875 0 0
0 -1 0
0.125 -1 0
0 -0.875 0
0.125 -0.875 0
0.125 -1 0
0.25 -1 0
0.125 -0.875 0
0.25 -0.875 0
0 -0.875 0
0.125 -0.875 0
0 -0.75 0
0.125 -0.75 0
0.125 -0.875 0
0.25 -0.875 0
0.125 -0.75 0
0.25 -0.75 0
0.25 -1 0
0.375 -1 0
0.25 -0.875 0
0.375 -0.875 0
0.375 -1 0
0.5 -1 0
0.375 -0.875 0
0.5 -0.875 0
0.25 -0.875 0
0.375 -0.875 0
0.25 -0.75 0
0.375 -0.75 0
0.375 -0.875 0
0.5 -0.875 0
0.375 -0.75 0
0.5 -0.75 0
0 -0.75 0
0.125 -0.75 0
0 -0.625 0
0.125 -0.625 0
0.125 -0.75 0
0.25 -0.75 0
0.125 -0.625 0
0.25 -0.625 0
0.125 -0.625 0
0.25 -0.625 0
0.125 -0.5 0
0.25 -0.5 0
0.25 -0.75 0
0.375 -0.75 0
0.25 -0.625 0
0.375 -0.625 0
0.375 -0.75 0
0.5 -0.75 0
0.375 -0.625 0
0.5 -0.625 0
0.25 -0.625 0
0.375 -0.625 0
0.25 -0.5 0
0.375 -0.5 0
0.375 -0.625 0
0.5 -0.625 0
0.375 -0.5 0
0.5 -0.5 0
0.5 -1 0
0.625 -1 0
0.5 -0.875 0
0.625 -0.875 0
0.625 -1 0
0.75 -1 0
0.625 -0.875 0
0.75 -0.875 0
0.5 -0.875 0
0.625 -0.875 0
0.5 -0.75 0
0.625 -0.75 0
0.625 -0.875 0
0.75 -0.875 0
0.625 -0.75 0
0.75 -0.75 0
0.75 -1 0
0.875 -1 0
0.75 -0.875 0
0.875 -0.875 0
0.875 -1 0
1 -1 0
0.875 -0.875 0
1 -0.875 0
0.75 -0.875 0
0.875 -0.875 0
0.75 -0.75 0
0.875 -0.75 0
0.875 -0.875 0
1 -0.875 0
0.875 -0.75 0
1 -0.75 0
0.5 -0.75 0
0.625 -0.75 0
0.5 -0.625 0
0.625 -0.625 0
0.625 -0.75 0
0.75 -0.75 0
0.625 -0.625 0
0.75 -0.625 0
0.5 -0.625 0
0.625 -0.625 0
0.5 -0.5 0
0.625 -0.5 0
0.625 -0.625 0
0.75 -0.625 0
0.625 -0.5 0
0.75 -0.5 0
0.75 -0.75 0
0.875 -0.75 0
0.75 -0.625 0
0.875 -0.625 0
0.875 -0.75 0
1 -0.75 0
0.875 -0.625 0
1 -0.625 0
0.75 -0.625 0
0.875 -0.625 0
0.75 -0.5 0
0.875 -0.5 0
0.875 -0.625 0
1 -0.625 0
0.875 -0.5 0
1 -0.5 0
0.875 -0.5 0
1 -0.5 0
0.875 -0.375 0
1 -0.375 0
0.875 -0.375 0
1 -0.375 0
0.875 -0.25 0
1 -0.25 0
0.875 -0.25 0
1 -0.25 0
0.875 -0.125 0
1 -0.125 0
0.875 -0.125 0
1 -0.125 0
0.875 0 0
1 0 0
-1 0 0
-0.875 0 0
-1 0.125 0
-0.875 0.125 0
-1 0.125 0
-0.875 0.125 0
-1 0.25 0
-0.875 0.25 0
-1 0.25 0
-0.875 0.25 0
-1 0.375 0
-0.875 0.375 0
-1 0.375 0
-0.875 0.375 0
-1 0.5 0
-0.875 0.5 0
-1 0.5 0
-0.875 0.5 0
-1 0.625 0
-0.875 0.625 0
-0.875 0.5 0
-0.75 0.5 0
-0.875 0.625 0
-0.75 0.625 0
-1 0.625 0
-0.875 0.625 0
-1 0.75 0
-0.875 0.75 0
-0.875 0.625 0
-0.75 0.625 0
-0.875 0.75 0
-0.75 0.75 0
-0.75 0.5 0
-0.625 0.5 0
-0.75 0.625 0
-0.625 0.625 0
-0.625 0.5 0
-0.5 0.5 0
-0.625 0.625 0
-0.5 0.625 0
-0.75 0.625 0
-0.625 0.625 0
-0.75 0.75 0
-0.625 0.75 0
-0.625 0.625 0
-0.5 0.625 0
-0.625 0.75 0
-0.5 0.75 0
-1 0.75 0
-0.875 0.75 0
-1 0.875 0
-0.875 0.875 0
-0.875 0.75 0
-0.75 0.75 0
-0.875 0.875 0
-0.75 0.875 0
-1 0.875 0
-0.875 0.875 0
-1 1 0
-0.875 1 0
-0.875 0.875 0
-0.75 0.875 0
-0.875 1 0
-0.75 1 0
-0.75 0.75 0
-0.625 0.75 0
-0.75 0.875 0
-0.625 0.875 0
-0.625 0.75 0
-0.5 0.75 0
-0.625 0.875 0
-0.5 0.875 0
-0.75 0.875 0
-0.625 0.875 0
-0.75 1 0
-0.625 1 0
-0.625 0.875 0
-0.5 0.875 0
-0.625 1 0
-0.5 1 0
-0.5 0.5 0
-0.375 0.5 0
-0.5 0.625 0
-0.375 0.625 0
-0.375 0.5 0
-0.25 0.5 0
-0.375 0.625 0
-0.25 0.625 0
-0.5 0.625 0
-0.375 0.625 0
-0.5 0.75 0
-0.375 0.75 0
-0.375 0.625 0
-0.25 0.625 0
-0.375 0.75 0
-0.25 0.75 0
-0.25 0.5 0
-0.125 0.5 0
-0.25 0.625 0
-0.125 0.625 0
-0.25 0.625 0
-0.125 0.625 0
-0.25 0.75 0
-0.125 0.75 0
-0.125 0.625 0
0 0.625 0
-0.125 0.75 0
0 0.75 0
-0.5 0.75 0
-0.375 0.75 0
-0.5 0.875 0
-0.375 0.875 0
-0.375 0.75 0
-0.25 0.75 0
-0.375 0.875 0
-0.25 0.875 0
-0.5 0.875 0
-0.375 0.875 0
-0.5 1 0
-0.375 1 0
-0.375 0.875 0
-0.25 0.875 0
-0.375 1 0
-0.25 1 0
-0.25 0.75 0
-0.125 0.75 0
-0.25 0.875 0
-0.125 0.875 0
-0.125 0.75 0
0 0.75 0
-0.125 0.875 0
0 0.875 0
-0.25 0.875 0
-0.125 0.875 0
-0.25 1 0
-0.125 1 0
-0.125 0.875 0
0 0.875 0
-0.125 1 0
0 1 0
0.875 0 0
1 0 0
0.875 0.125 0
1 0.125 0
0.875 0.125 0
1 0.125 0
0.875 0.25 0
1 0.25 0
0.5 0.375 0
0.625 0.375 0
0.5 0.5 0
0.625 0.5 0
0.625 0.375 0
0.75 0.375 0
0.625 0.5 0
0.75 0.5 0
0.875 0.25 0
1 0.25 0
0.875 0.375 0
1 0.375 0
0.75 0.375 0
0.875 0.375 0
0.75 0.5 0
0.875 0.5 0
0.875 0.375 0
1 0.375 0
0.875 0.5 0
1 0.5 0
0 0.5 0
0.125 0.5 0
0 0.625 0
0.125 0.625 0
0.125 0.5 0
0.25 0.5 0
0.125 0.625 0
0.25 0.625 0
0 0.625 0
0.125 0.625 0
0 0.75 0
0.125 0.75 0
0.125 0.625 0
0.25 0.625 0
0.125 0.75 0
0.25 0.75 0
0.25 0.5 0
0.375 0.5 0
0.25 0.625 0
0.375 0.625 0
0.375 0.5 0
0.5 0.5 0
0.375 0.625 0
0.5 0.625 0
0.25 0.625 0
0.375 0.625 0
0.25 0.75 0
0.375 0.75 0
0.375 0.625 0
0.5 0.625 0
0.375 0.75 0
0.5 0.75 0
0 0.75 0
0.125 0.75 0
0 0.875 0
0.125 0.875 0
0.125 0.75 0
0.25 0.75 0
0.125 0.875 0
0.25 0.875 0
0 0.875 0
0.125 0.875 0
0 1 0
0.125 1 0
0.125 0.875 0
0.25 0.875 0
0.125 1 0
0.25 1 0
0.25 0.75 0
0.375 0.75 0
0.25 0.875 0
0.375 0.875 0
0.375 0.75 0
0.5 0.75 0
0.375 0.875 0
0.5 0.875 0
0.25 0.875 0
0.375 0.875 0
0.25 1 0
0.375 1 0
0.375 0.875 0
0.5 0.875 0
0.375 1 0
0.5 1 0
0.5 0.5 0
0.625 0.5 0
0.5 0.625 0
0.625 0.625 0
0.625 0.5 0
0.75 0.5 0
0.625 0.625 0
0.75 0.625 0
0.5 0.625 0
0.625 0.625 0
0.5 0.75 0
0.625 0.75 0
0.625 0.625 0
0.75 0.625 0
0.625 0.75 0
0.75 0.75 0
0.75 0.5 0
0.875 0.5 0
0.75 0.625 0
0.875 0.625 0
0.875 0.5 0
1 0.5 0
0.875 0.625 0
1 0.625 0
0.75 0.625 0
0.875 0.625 0
0.75 0.75 0
0.875 0.75 0
0.875 0.625 0
1 0.625 0
0.875 0.75 0
1 0.75 0
0.5 0.75 0
0.625 0.75 0
0.5 0.875 0
0.625 0.875 0
0.625 0.75 0
0.75 0.75 0
0.625 0.875 0
0.75 0.875 0
0.5 0.875 0
0.625 0.875 0
0.5 1 0
0.625 1 0
0.625 0.875 0
0.75 0.875 0
0.625 1 0
0.75 1 0
0.75 0.75 0
0.875 0.75 0
0.75 0.875 0
0.875 0.875 0
0.875 0.75 0
1 0.75 0
0.875 0.875 0
1 0.875 0
0.75 0.875 0
0.875 0.875 0
0.75 1 0
0.875 1 0
0.875 0.875 0
1 0.875 0
0.875 1 0
1 1 0
-0.625 -0.375 0
-0.5625 -0.375 0
-0.625 -0.3125 0
-0.5625 -0.3125 0
-0.5625 -0.375 0
-0.5 -0.375 0
-0.5625 -0.3125 0
-0.5 -0.3125 0
-0.625 -0.3125 0
-0.5625 -0.3125 0
-0.625 -0.25 0
-0.5625 -0.25 0
-0.5625 -0.3125 0
-0.5 -0.3125 0
-0.5625 -0.25 0
-0.5 -0.25 0
-0.875 -0.125 0
-0.8125 -0.125 0
-0.875 -0.0625 0
-0.8125 -0.0625 0
-0.8125 -0.125 0
-0.75 -0.125 0
-0.8125 -0.0625 0
-0.75 -0.0625 0
-0.875 -0.0625 0
-0.8125 -0.0625 0
-0.875 0 0
-0.8125 0 0
-0.8125 -0.0625 0
-0.75 -0.0625 0
-0.8125 0 0
-0.75 0 0
-0.75 -0.25 0
-0.6875 -0.25 0
-0.75 -0.1875 0
-0.6875 -0.1875 0
-0.6875 -0.25 0
-0.625 -0.25 0
-0.6875 -0.1875 0
-0.625 -0.1875 0
-0.75 -0.1875 0
-0.6875 -0.1875 0
-0.75 -0.125 0
-0.6875 -0.125 0
-0.6875 -0.1875 0
-0.625 -0.1875 0
-0.6875 -0.125 0
-0.625 -0.125 0
-0.625 -0.25 0
-0.5625 -0.25 0
-0.625 -0.1875 0
-0.5625 -0.1875 0
-0.5625 -0.25 0
-0.5 -0.25 0
-0.5625 -0.1875 0
-0.5 -0.1875 0
-0.75 -0.125 0
-0.6875 -0.125 0
-0.75 -0.0625 0
-0.6875 -0.0625 0
-0.75 -0.0625 0
-0.6875 -0.0625 0
-0.75 0 0
-0.6875 0 0
-0.5 -0.375 0
-0.4375 -0.375 0
-0.5 -0.3125 0
-0.4375 -0.3125 0
-0.4375 -0.375 0
-0.375 -0.375 0
-0.4375 -0.3125 0
-0.375 -0.3125 0
-0.5 -0.3125 0
-0.4375 -0.3125 0
-0.5 -0.25 0
-0.4375 -0.25 0
-0.4375 -0.3125 0
-0.375 -0.3125 0
-0.4375 -0.25 0
-0.375 -0.25 0
-0.25 -0.375 0
-0.1875 -0.375 0
-0.25 -0.3125 0
-0.1875 -0.3125 0
-0.1875 -0.375 0
-0.125 -0.375 0
-0.1875 -0.3125 0
-0.125 -0.3125 0
-0.25 -0.3125 0
-0.1875 -0.3125 0
-0.25 -0.25 0
-0.1875 -0.25 0
-0.1875 -0.3125 0
-0.125 -0.3125 0
-0.1875 -0.25 0
-0.125 -0.25 0
-0.125 -0.375 0
-0.0625 -0.375 0
-0.125 -0.3125 0
-0.0625 -0.3125 0
-0.0625 -0.375 0
0 -0.375 0
-0.0625 -0.3125 0
0 -0.3125 0
-0.125 -0.3125 0
-0.0625 -0.3125 0
-0.125 -0.25 0
-0.0625 -0.25 0
-0.0625 -0.3125 0
0 -0.3125 0
-0.0625 -0.25 0
0 -0.25 0
-0.5 -0.25 0
-0.4375 -0.25 0
-0.5 -0.1875 0
-0.4375 -0.1875 0
-0.4375 -0.25 0
-0.375 -0.25 0
-0.4375 -0.1875 0
-0.375 -0.1875 0
-0.375 -0.25 0
-0.3125 -0.25 0
-0.375 -0.1875 0
-0.3125 -0.1875 0
-0.3125 -0.25 0
-0.25 -0.25 0
-0.3125 -0.1875 0
-0.25 -0.1875 0
-0.3125 -0.1875 0
-0.25 -0.1875 0
-0.3125 -0.125 0
-0.25 -0.125 0
-0.25 -0.25 0
-0.1875 -0.25 0
-0.25 -0.1875 0
-0.1875 -0.1875 0
-0.1875 -0.25 0
-0.125 -0.25 0
[...]
POINT_DATA 3688
SCALARS x_displacement double 1
LOOKUP_TABLE default
0 0 0 0.000840955 0 0 0.000840955 0.00128117 0 0.000840955 0 0.00131017 0.000840955 0.00128117 0.00131017 0.00226632 0 0 0.00128117 0.00156412 0 0 0.00156412 0.00175806 0.00128117 0.00156412 0.00226632 0.0029645 0.00156412 0.00175806 0.0029645 0.00348175 0 0.00131017 0 0.00178498 0.00131017 0.00226632 0.00178498 0.00323626 0 0.00178498 0 0.00237462 0.00178498 0.00323626 0.00237462 0.00443645 0.00226632 0.0029645 0.00323626 0.00442479 0.0029645 0.00348175 0.00442479 0.00538436 0.00323626 0.00442479 0.00443645 0.0062077 0.00442479 0.00538436 0.0062077 0.00770559 0 0 0.00175806 0.00185655 0 0 0.00185655 0.00182128 0.00175806 0.00185655 0.00348175 0.0038016 0.00185655 0.00182128 0.0038016 0.00384776 0 0 0.00182128 0.00162003 0 0 0.00162003 0.00126432 0.00182128 0.00162003 0.00384776 0.00356121 0.00162003 0.00126432 0.00356121 0.00295967 0.00348175 0.0038016 0.00538436 0.00605942 0.0038016 0.00384776 0.00605942 0.00631609 0.00538436 0.00605942 0.00770559 0.00888795 0.00605942 0.00631609 0.00888795 0.00943654 0.00384776 0.00356121 0.00631609 0.00601675 0.00356121 0.00295967 0.00601675 0.00521175 0.00631609 0.00601675 0.00943654 0.00915307 0.00601675 0.00521175 0.00915307 0.00809212 0 0.00237462 0 0.00319626 0.00237462 0.00443645 0.00319626 0.00614918 0 0.00319626 0 0.00427264 0.00443645 0.0062077 0.00614918 0.0086965 0.0062077 0.00770559 0.0086965 0.0107927 0 0.00427264 0 0.00540987 0 0.00540987 0 0.00578207 0 0 0.00126432 0.000818622 0 0 0.000818622 0.000381361 0.00126432 0.000818622 0.00295967 0.0021723 0.000818622 0.000381361 0.0021723 0.001378 0 0 0.000381361 4.44498e-05 0 0 4.44498e-05 -0.000136662 0.000381361 4.44498e-05 0.001378 0.000736908 4.44498e-05 -0.000136662 0.000736908 0.000333159 0.00295967 0.0021723 0.00521175 0.00409675 0.0021723 0.001378 0.00409675 0.00297239 0.00409675 0.00297239 0.0066277 0.00524265 0.001378 0.000736908 0.00297239 0.00203467 0.000736908 0.000333159 0.00203467 0.00138164 0.00297239 0.00203467 0.00524265 0.00408745 0.00203467 0.00138164 0.00408745 0.0031955 0 0 -0.000136662 -0.000159205 0 0 -0.000159205 -7.30404e-05 -0.000136662 -0.000159205 0.000333159 0.000166472 -0.000159205 -7.30404e-05 0.000166472 0.00015353 0 0 -7.30404e-05 2.56899e-05 0 0 2.56899e-05 0 -7.30404e-05 2.56899e-05 0.00015353 0.000153101 2.56899e-05 0 0.000153101 0 0.000333159 0.000166472 0.00138164 0.000987332 0.000166472 0.00015353 0.000987332 0.00073647 0.00138164 0.000987332 0.0031955 0.00249577 0.000987332 0.00073647 0.00249577 0.00183317 0.00015353 0.000153101 0.00073647 0.000467705 0.000153101 0 0.000467705 0 0.00073647 0.000467705 0.00183317 0.00104107 0.000467705 0 0.00104107 0 0.00104107 0 0.00195947 0 0.00195947 0 0.0033392 0 0.0033392 0 0.00489674 0 0.00489674 0 0.00578207 0 0 0.00578207 0 0.00489674 0 0.00489674 0 0.0033392 0 0.0033392 0 0.00195947 0 0.00195947 0 0.00104107 0 0.00104107 0 0.000467705 0.00104107 0.00183317 0.000467705 0.00073647 0 0.000467705 0 0.000153101 0.000467705 0.00073647 0.000153101 0.00015353 0.00183317 0.00249577 0.00073647 0.000987332 0.00249577 0.0031955 0.000987332 0.00138164 0.00073647 0.000987332 0.00015353 0.000166472 0.000987332 0.00138164 0.000166472 0.000333159 0 0.000153101 0 2.56899e-05 0.000153101 0.00015353 2.56899e-05 -7.30404e-05 0 2.56899e-05 0 0 2.56899e-05 -7.30404e-05 0 0 0.00015353 0.000166472 -7.30404e-05 -0.000159205 0.000166472 0.000333159 -0.000159205 -0.000136662 -7.30404e-05 -0.000159205 0 0 -0.000159205 -0.000136662 0 0 0.0031955 0.00408745 0.00138164 0.00203467 0.00408745 0.00524265 0.00203467 0.00297239 0.00138164 0.00203467 0.000333159 0.000736908 0.00203467 0.00297239 0.000736908 0.001378 0.00524265 0.0066277 0.00297239 0.00409675 0.00297239 0.00409675 0.001378 0.0021723 0.00409675 0.00521175 0.0021723 0.00295967 0.000333159 0.000736908 -0.000136662 4.44498e-05 0.000736908 0.001378 4.44498e-05 0.000381361 -0.000136662 4.44498e-05 0 0 4.44498e-05 0.000381361 0 0 0.001378 0.0021723 0.000381361 0.000818622 0.0021723 0.00295967 0.000818622 0.00126432 0.000381361 0.000818622 0 0 0.000818622 0.00126432 0 0 0.00578207 0 0.00540987 0 0.00540987 0 0.00427264 0 0.0107927 0.0086965 0.00770559 0.0062077 0.0086965 0.00614918 0.0062077 0.00443645 0.00427264 0 0.00319626 0 0.00614918 0.00319626 0.00443645 0.00237462 0.00319626 0 0.00237462 0 0.00809212 0.00915307 0.00521175 0.00601675 0.00915307 0.00943654 0.00601675 0.00631609 0.00521175 0.00601675 0.00295967 0.00356121 0.00601675 0.00631609 0.00356121 0.00384776 0.00943654 0.00888795 0.00631609 0.00605942 0.00888795 0.00770559 0.00605942 0.00538436 0.00631609 0.00605942 0.00384776 0.0038016 0.00605942 0.00538436 0.0038016 0.00348175 0.00295967 0.00356121 0.00126432 0.00162003 0.00356121 0.00384776 0.00162003 0.00182128 0.00126432 0.00162003 0 0 0.00162003 0.00182128 0 0 0.00384776 0.0038016 0.00182128 0.00185655 0.0038016 0.00348175 0.00185655 0.00175806 0.00182128 0.00185655 0 0 0.00185655 0.00175806 0 0 0.00770559 0.0062077 0.00538436 0.00442479 0.0062077 0.00443645 0.00442479 0.00323626 0.00538436 0.00442479 0.00348175 0.0029645 0.00442479 0.00323626 0.0029645 0.00226632 0.00443645 0.00237462 0.00323626 0.00178498 0.00237462 0 0.00178498 0 0.00323626 0.00178498 0.00226632 0.00131017 0.00178498 0 0.00131017 0 0.00348175 0.0029645 0.00175806 0.00156412 0.0029645 0.00226632 0.00156412 0.00128117 0.00175806 0.00156412 0 0 0.00156412 0.00128117 0 0 0.00226632 0.00131017 0.00128117 0.000840955 0.00131017 0 0.000840955 0 0.00128117 0.000840955 0 0 0.000840955 0 0 0 0.0086965 0.00974461 0.0103615 0.0117094 0.00974461 0.0107927 0.0117094 0.0128824 0.0103615 0.0117094 0.0125531 0.0142074 0.0117094 0.0128824 0.0142074 0.0155795 0.00540987 0.00837685 0.00559597 0.00896284 0.00837685 0.011583 0.00896284 0.0125773 0.00559597 0.00896284 0.00578207 0.00905419 0.00896284 0.0125773 0.00905419 0.0127651 0.00862264 0.0106695 0.0101329 0.012784 0.0106695 0.0125531 0.012784 0.0153724 0.0101329 0.012784 0.011583 0.0149934 0.012784 0.0153724 0.0149934 0.0184935 0.0125531 0.0142074 0.0153724 0.0176979 0.0142074 0.0155795 0.0176979 0.019366 0.011583 0.0149934 0.0125773 0.0165608 0.0125773 0.0165608 0.0127651 0.0168396 0.0107927 0.0117197 0.0128824 0.0138946 0.0117197 0.0124794 0.0138946 0.0147084 0.0128824 0.0138946 0.0155795 0.0166067 0.0138946 0.0147084 0.0166067 0.0173336 0.0133231 0.0133113 0.0155676 0.0155153 0.0133113 0.0129863 0.0155153 0.015106 0.0155676 0.0155153 0.0179108 0.017731 0.0155153 0.015106 0.017731 0.0171912 0.0129863 0.0123643 0.015106 0.0143691 0.0123643 0.0115453 0.0143691 0.0134159 0.015106 0.0143691 0.0171912 0.0163363 0.0143691 0.0134159 0.0163363 0.015252 0.0155795 0.0166067 0.019366 0.0202345 0.0166067 0.0173336 0.0202345 0.0204148 0.0173336 0.0177645 0.0204148 0.0203792 0.0177645 0.0179108 0.0203792 0.0201464 0.0203792 0.0201464 0.0227454 0.0219196 0.0179108 0.017731 0.0201464 0.0197095 0.017731 0.0171912 0.0197095 0.0189714 0.0201464 0.0197095 0.0219196 0.021086 0.0197095 0.0189714 0.021086 0.0200458 0.0171912 0.0163363 0.0189714 0.0179539 0.0115453 0.0106525 0.0134159 0.0124261 0.0106525 0.00980004 0.0124261 0.011567 0.0134159 0.0124261 0.015252 0.0142161 0.0124261 0.011567 0.0142161 0.0134353 0.00980004 0.00904586 0.011567 0.0109015 0.00904586 0.00839556 0.0109015 0.0103988 0.011567 0.0109015 0.0134353 0.012957 0.0109015 0.0103988 0.012957 0.0127397 0.00839556 0.00782553 0.0103988 0.00998108 0.00782553 0.00729294 0.00998108 0.00956497 0.0103988 0.00998108 0.0127397 0.0126374 0.00998108 0.00956497 0.0126374 0.0124986 0.00729294 0.00677232 0.00956497 0.00909373 0.00677232 0.00624533 0.00909373 0.00853191 0.00956497 0.00909373 0.0124986 0.0122004 0.00909373 0.00853191 0.0122004 0.0116528 0.0142161 0.0134353 0.0160639 0.0154086 0.0134353 0.012957 0.0154086 0.0151998 0.012957 0.0127397 0.0151998 0.0154004 0.0154086 0.0151998 0.0175033 0.0175463 0.0151998 0.0154004 0.0175463 0.0182048 0.0175463 0.0182048 0.0197136 0.0207213 0.0127397 0.0126374 0.0154004 0.0158194 0.0126374 0.0124986 0.0158194 0.0162803 0.0154004 0.0158194 0.0182048 0.019308 0.0158194 0.0162803 0.019308 0.0205907 0.0124986 0.0122004 0.0162803 0.0165265 0.0122004 0.0116528 0.0165265 0.0161116 0.0182048 0.019308 0.0207213 0.0223366 0.0031955 0.00284564 0.00452333 0.00407234 0.00284564 0.00249577 0.00407234 0.00362382 0.00452333 0.00407234 0.00624533 0.00569763 0.00407234 0.00362382 0.00569763 0.00510741 0.00624533 0.00569763 0.00853191 0.00785984 0.00569763 0.00510741 0.00785984 0.00706112 0.00853191 0.00785984 0.0116528 0.0107858 0.00785984 0.00706112 0.0107858 0.00963931 0.00510741 0.00445052 0.00706112 0.00612765 0.00445052 0.00371194 0.00612765 0.0050608 0.00706112 0.00612765 0.00963931 0.00826292 0.00612765 0.0050608 0.00826292 0.00671293 0.0116528 0.0107858 0.0161116 0.0148955 0.0107858 0.00963931 0.0148955 0.0130097 0.00963931 0.00826292 0.0130097 0.0108461 0.00826292 0.00671293 0.0108461 0.00860863 0.0130097 0.0108461 0.0168225 0.0136342 0.0108461 0.00860863 0.0136342 0.0105176 0.0136342 0.0105176 0.015859 0.0120289 0.015859 0.0120289 0.0168396 0.0127651 0.00671293 0.00505675 0.00860863 0.00634862 0.00505675 0.0033392 0.00634862 0.00411797 0.00860863 0.00634862 0.0105176 0.00759555 0.00634862 0.00411797 0.00759555 0.00489674 0.0105176 0.00759555 0.0120289 0.00856193 0.00759555 0.00489674 0.00856193 0.0053394 0.0120289 0.00856193 0.0127651 0.00905419 0.00856193 0.0053394 0.00905419 0.00578207 0.00578207 0.00905419 0.0053394 0.00856193 0.00905419 0.0127651 0.00856193 0.0120289 0.0053394 0.00856193 0.00489674 0.00759555 0.00856193 0.0120289 0.00759555 0.0105176 0.00489674 0.00759555 0.00411797 0.00634862 0.00759555 0.0105176 0.00634862 0.00860863 0.00411797 0.00634862 0.0033392 0.00505675 0.00634862 0.00860863 0.00505675 0.00671293 0.0127651 0.0168396 0.0120289 0.015859 0.0120289 0.015859 0.0105176 0.0136342 0.0105176 0.0136342 0.00860863 0.0108461 0.0136342 0.0168225 0.0108461 0.0130097 0.00860863 0.0108461 0.00671293 0.00826292 0.0108461 0.0130097 0.00826292 0.00963931 0.0130097 0.0148955 0.00963931 0.0107858 0.0148955 0.0161116 0.0107858 0.0116528 0.00671293 0.00826292 0.0050608 0.00612765 0.00826292 0.00963931 0.00612765 0.00706112 0.0050608 0.00612765 0.00371194 0.00445052 0.00612765 0.00706112 0.00445052 0.00510741 0.00963931 0.0107858 0.00706112 0.00785984 0.0107858 0.0116528 0.00785984 0.00853191 0.00706112 0.00785984 0.00510741 0.00569763 0.00785984 0.00853191 0.00569763 0.00624533 0.00510741 0.00569763 0.00362382 0.00407234 0.00569763 0.00624533 0.00407234 0.00452333 0.00362382 0.00407234 0.00249577 0.00284564 0.00407234 0.00452333 0.00284564 0.0031955 0.0223366 0.0207213 0.019308 0.0182048 0.0161116 0.0165265 0.0116528 0.0122004 0.0165265 0.0162803 0.0122004 0.0124986 0.0205907 0.019308 0.0162803 0.0158194 0.019308 0.0182048 0.0158194 0.0154004 0.0162803 0.0158194 0.0124986 0.0126374 0.0158194 0.0154004 0.0126374 0.0127397 0.0207213 0.0197136 0.0182048 0.0175463 0.0182048 0.0175463 0.0154004 0.0151998 0.0175463 0.0175033 0.0151998 0.0154086 0.0154004 0.0151998 0.0127397 0.012957 0.0151998 0.0154086 0.012957 0.0134353 0.0154086 0.0160639 0.0134353 0.0142161 0.0116528 0.0122004 0.00853191 0.00909373 0.0122004 0.0124986 0.00909373 0.00956497 0.00853191 0.00909373 0.00624533 0.00677232 0.00909373 0.00956497 0.00677232 0.00729294 0.0124986 0.0126374 0.00956497 0.00998108 0.0126374 0.0127397 0.00998108 0.0103988 0.00956497 0.00998108 0.00729294 0.00782553 0.00998108 0.0103988 0.00782553 0.00839556 0.0127397 0.012957 0.0103988 0.0109015 0.012957 0.0134353 0.0109015 0.011567 0.0103988 0.0109015 0.00839556 0.00904586 0.0109015 0.011567 0.00904586 0.00980004 0.0134353 0.0142161 0.011567 0.0124261 0.0142161 0.015252 0.0124261 0.0134159 0.011567 0.0124261 0.00980004 0.0106525 0.0124261 0.0134159 0.0106525 0.0115453 0.0179539 0.0189714 0.0163363 0.0171912 0.0200458 0.021086 0.0189714 0.0197095 0.021086 0.0219196 0.0197095 0.0201464 0.0189714 0.0197095 0.0171912 0.017731 0.0197095 0.0201464 0.017731 0.0179108 0.0219196 0.0227454 0.0201464 0.0203792 0.0201464 0.0203792 0.0179108 0.0177645 0.0203792 0.0204148 0.0177645 0.0173336 0.0204148 0.0202345 0.0173336 0.0166067 0.0202345 0.019366 0.0166067 0.0155795 0.015252 0.0163363 0.0134159 0.0143691 0.0163363 0.0171912 0.0143691 0.015106 0.0134159 0.0143691 0.0115453 0.0123643 0.0143691 0.015106 0.0123643 0.0129863 0.0171912 0.017731 0.015106 0.0155153 0.017731 0.0179108 0.0155153 0.0155676 0.015106 0.0155153 0.0129863 0.0133113 0.0155153 0.0155676 0.0133113 0.0133231 0.0173336 0.0166067 0.0147084 0.0138946 0.0166067 0.0155795 0.0138946 0.0128824 0.0147084 0.0138946 0.0124794 0.0117197 0.0138946 0.0128824 0.0117197 0.0107927 0.0168396 0.0127651 0.0165608 0.0125773 0.0165608 0.0125773 0.0149934 0.011583 0.019366 0.0176979 0.0155795 0.0142074 0.0176979 0.0153724 0.0142074 0.0125531 0.0184935 0.0149934 0.0153724 0.012784 0.0149934 0.011583 0.012784 0.0101329 0.0153724 0.012784 0.0125531 0.0106695 0.012784 0.0101329 0.0106695 0.00862264 0.0127651 0.00905419 0.0125773 0.00896284 0.00905419 0.00578207 0.00896284 0.00559597 0.0125773 0.00896284 0.011583 0.00837685 0.00896284 0.00559597 0.00837685 0.00540987 0.0155795 0.0142074 0.0128824 0.0117094 0.0142074 0.0125531 0.0117094 0.0103615 0.0128824 0.0117094 0.0107927 0.00974461 0.0117094 0.0103615 0.00974461 0.0086965 0.00319626 0.00467272 0.00373445 0.00553133 0.00467272 0.00614918 0.00553133 0.00726069 0.00373445 0.00553133 0.00427264 0.0064711 0.00553133 0.00726069 0.0064711 0.00862264 0.00614918 0.00742284 0.00726069 0.00889665 0.00742284 0.0086965 0.00889665 0.0103615 0.00726069 0.00889665 0.00862264 0.0106695 0.00889665 0.0103615 0.0106695 0.0125531 0.00427264 0.0064711 0.00484125 0.00747096 0.0064711 0.00862264 0.00747096 0.0101329 0.00484125 0.00747096 0.00540987 0.00837685 0.00747096 0.0101329 0.00837685 0.011583 0.00770559 0.00829677 0.00924916 0.0099405 0.00829677 0.00888795 0.0099405 0.0105394 0.00924916 0.0099405 0.0107927 0.0117197 0.0099405 0.0105394 0.0117197 0.0124794 0.00888795 0.00916224 0.0105394 0.0110154 0.00916224 0.00943654 0.0110154 0.0112452 0.0105394 0.0110154 0.0124794 0.013026 0.0110154 0.0112452 0.013026 0.0133231 0.0124794 0.013026 0.0147084 0.0152849 0.013026 0.0133231 0.0152849 0.0155676 0.0147084 0.0152849 0.0173336 0.0177645 0.0152849 0.0155676 0.0177645 0.0179108 0.00943654 0.00929481 0.0112452 0.0112511 0.00929481 0.00915307 0.0112511 0.0109616 0.0112452 0.0112511 0.0133231 0.0133113 0.0112511 0.0109616 0.0133113 0.0129863 0.00915307 0.00862259 0.0109616 0.0104535 0.00862259 0.00809212 0.0104535 0.00973298 0.0109616 0.0104535 0.0129863 0.0123643 0.0104535 0.00973298 0.0123643 0.0115453 0.00521175 0.00465425 0.00665193 0.00599578 0.00465425 0.00409675 0.00599578 0.00536222 0.00665193 0.00599578 0.00809212 0.007394 0.00599578 0.00536222 0.007394 0.0066277 0.00809212 0.007394 0.00973298 0.00895263 0.007394 0.0066277 0.00895263 0.00816107 0.00973298 0.00895263 0.0115453 0.0106525 0.00895263 0.00816107 0.0106525 0.00980004 0.0066277 0.00593517 0.00816107 0.00738427 0.00593517 0.00524265 0.00738427 0.00669546 0.00816107 0.00738427 0.00980004 0.00904586 0.00738427 0.00669546 0.00904586 0.00839556 0.00524265 0.00466505 0.00669546 0.006075 0.00466505 0.00408745 0.006075 0.00551515 0.00669546 0.006075 0.00839556 0.00782553 0.006075 0.00551515 0.00782553 0.00729294 0.00408745 0.00364148 0.00551515 0.00499885 0.00364148 0.0031955 0.00499885 0.00452333 0.00551515 0.00499885 0.00729294 0.00677232 0.00499885 0.00452333 0.00677232 0.00624533 0.00249577 0.00216447 0.00362382 0.00315896 0.00216447 0.00183317 0.00315896 0.0026462 0.00362382 0.00315896 0.00510741 0.00445052 0.00315896 0.0026462 0.00445052 0.00371194 0.00183317 0.00143712 0.0026462 0.00209029 0.00143712 0.00104107 0.00209029 0.00150027 0.0026462 0.00209029 0.00371194 0.00288936 0.00209029 0.00150027 0.00288936 0.00195947 0.00371194 0.00288936 0.0050608 0.00388095 0.00288936 0.00195947 0.00388095 0.00264933 0.0050608 0.00388095 0.00671293 0.00505675 0.00388095 0.00264933 0.00505675 0.0033392 0.0033392 0.00505675 0.00264933 0.00388095 0.00505675 0.00671293 0.00388095 0.0050608 0.00264933 0.00388095 0.00195947 0.00288936 0.00388095 0.0050608 0.00288936 0.00371194 0.00195947 0.00288936 0.00150027 0.00209029 0.00288936 0.00371194 0.00209029 0.0026462 0.00150027 0.00209029 0.00104107 0.00143712 0.00209029 0.0026462 0.00143712 0.00183317 0.00371194 0.00445052 0.0026462 0.00315896 0.00445052 0.00510741 0.00315896 0.00362382 0.0026462 0.00315896 0.00183317 0.00216447 0.00315896 0.00362382 0.00216447 0.00249577 0.00624533 0.00677232 0.00452333 0.00499885 0.00677232 0.00729294 0.00499885 0.00551515 0.00452333 0.00499885 0.0031955 0.00364148 0.00499885 0.00551515 0.00364148 0.00408745 0.00729294 0.00782553 0.00551515 0.006075 0.00782553 0.00839556 0.006075 0.00669546 0.00551515 0.006075 0.00408745 0.00466505 0.006075 0.00669546 0.00466505 0.00524265 0.00839556 0.00904586 0.00669546 0.00738427 0.00904586 0.00980004 0.00738427 0.00816107 0.00669546 0.00738427 0.00524265 0.00593517 0.00738427 0.00816107 0.00593517 0.0066277 0.00980004 0.0106525 0.00816107 0.00895263 0.0106525 0.0115453 0.00895263 0.00973298 0.00816107 0.00895263 0.0066277 0.007394 0.00895263 0.00973298 0.007394 0.00809212 0.0066277 0.007394 0.00536222 0.00599578 0.007394 0.00809212 0.00599578 0.00665193 0.00536222 0.00599578 0.00409675 0.00465425 0.00599578 0.00665193 0.00465425 0.00521175 0.0115453 0.0123643 0.00973298 0.0104535 0.0123643 0.0129863 0.0104535 0.0109616 0.00973298 0.0104535 0.00809212 0.00862259 0.0104535 0.0109616 0.00862259 0.00915307 0.0129863 0.0133113 0.0109616 0.0112511 0.0133113 0.0133231 0.0112511 0.0112452 0.0109616 0.0112511 0.00915307 0.00929481 0.0112511 0.0112452 0.00929481 0.00943654 0.0179108 0.0177645 0.0155676 0.0152849 0.0177645 0.0173336 0.0152849 0.0147084 0.0155676 0.0152849 0.0133231 0.013026 0.0152849 0.0147084 0.013026 0.0124794 0.0133231 0.013026 0.0112452 0.0110154 0.013026 0.0124794 0.0110154 0.0105394 0.0112452 0.0110154 0.00943654 0.00916224 0.0110154 0.0105394 0.00916224 0.00888795 0.0124794 0.0117197 0.0105394 0.0099405 0.0117197 0.0107927 0.0099405 0.00924916 0.0105394 0.0099405 0.00888795 0.00829677 0.0099405 0.00924916 0.00829677 0.00770559 0.011583 0.00837685 0.0101329 0.00747096 0.00837685 0.00540987 0.00747096 0.00484125 0.0101329 0.00747096 0.00862264 0.0064711 0.00747096 0.00484125 0.0064711 0.00427264 0.0125531 0.0106695 0.0103615 0.00889665 0.0106695 0.00862264 0.00889665 0.00726069 0.0103615 0.00889665 0.0086965 0.00742284 0.00889665 0.00726069 0.00742284 0.00614918 0.00862264 0.0064711 0.00726069 0.00553133 0.0064711 0.00427264 0.00553133 0.00373445 0.00726069 0.00553133 0.00614918 0.00467272 0.00553133 0.00373445 0.00467272 0.00319626 0.0153724 0.0165351 0.0169329 0.0184064 0.0165351 0.0176979 0.0184064 0.019609 0.0169329 0.0184064 0.0184935 0.019917 0.0184064 0.019609 0.019917 0.0211472 0.0176979 0.0185319 0.019609 0.0206054 0.0185319 0.019366 0.0206054 0.0213394 0.019609 0.0206054 0.0211472 0.0221422 0.0206054 0.0213394 0.0221422 0.0229118 0.0149934 0.0167434 0.0157771 0.0177819 0.0167434 0.0184935 0.0177819 0.0195146 0.0157771 0.0177819 0.0165608 0.0184677 0.0177819 0.0195146 0.0184677 0.0202036 0.0165608 0.0184677 0.0167002 0.0187701 0.0184677 0.0202036 0.0187701 0.0205177 0.0167002 0.0187701 0.0168396 0.0187503 0.0187701 0.0205177 0.0187503 0.0204761 0.0184935 0.019917 0.0195146 0.0210114 0.019917 0.0211472 0.0210114 0.022252 0.0195146 0.0210114 0.0202036 0.0216986 0.0210114 0.022252 0.0216986 0.02295 0.0211472 0.0221422 0.022252 0.0232581 0.0221422 0.0229118 0.0232581 0.0240249 0.022252 0.0232581 0.02295 0.0239546 0.0232581 0.0240249 0.0239546 0.0247164 0.0202036 0.0216986 0.0205177 0.022011 0.0216986 0.02295 0.022011 0.0232544 0.0205177 0.022011 0.0204761 0.0219529 0.022011 0.0232544 0.0219529 0.0231787 0.02295 0.0239546 0.0232544 0.0242495 0.0239546 0.0247164 0.0242495 0.0249975 0.0232544 0.0242495 0.0231787 0.0241541 0.0242495 0.0249975 0.0241541 0.0248807 0.019366 0.0198003 0.0213394 0