# vtk DataFile Version 3.0
#This file was generated by the deal.II library on 2021/6/16 at 10:06:45
ASCII
DATASET UNSTRUCTURED_GRID

POINTS 25204 double
-0.625 -1 0
-0.5 -1 0
-0.625 -0.875 0
-0.5 -0.875 0
-0.5 -1 0
-0.375 -1 0
-0.5 -0.875 0
-0.375 -0.875 0
-0.375 -1 0
-0.25 -1 0
-0.375 -0.875 0
-0.25 -0.875 0
0.875 -1 0
1 -1 0
0.875 -0.875 0
1 -0.875 0
-1 0.875 0
-0.875 0.875 0
-1 1 0
-0.875 1 0
0.25 0.875 0
0.375 0.875 0
0.25 1 0
0.375 1 0
0.375 0.875 0
0.5 0.875 0
0.375 1 0
0.5 1 0
0.5 0.875 0
0.625 0.875 0
0.5 1 0
0.625 1 0
-0.25 0.25 0
-0.1875 0.25 0
-0.25 0.3125 0
-0.1875 0.3125 0
-1 -0.875 0
-0.9375 -0.875 0
-1 -0.8125 0
-0.9375 -0.8125 0
-1 -0.8125 0
-0.9375 -0.8125 0
-1 -0.75 0
-0.9375 -0.75 0
-0.8125 -0.875 0
-0.75 -0.875 0
-0.8125 -0.8125 0
-0.75 -0.8125 0
-0.75 -0.75 0
-0.6875 -0.75 0
-0.75 -0.6875 0
-0.6875 -0.6875 0
-0.6875 -0.75 0
-0.625 -0.75 0
-0.6875 -0.6875 0
-0.625 -0.6875 0
-0.6875 -0.6875 0
-0.625 -0.6875 0
-0.6875 -0.625 0
-0.625 -0.625 0
-0.5 -0.75 0
-0.4375 -0.75 0
-0.5 -0.6875 0
-0.4375 -0.6875 0
-0.4375 -0.75 0
-0.375 -0.75 0
-0.4375 -0.6875 0
-0.375 -0.6875 0
-0.5 -0.6875 0
-0.4375 -0.6875 0
-0.5 -0.625 0
-0.4375 -0.625 0
0.5625 -0.8125 0
0.625 -0.8125 0
0.5625 -0.75 0
0.625 -0.75 0
0.6875 -0.875 0
0.75 -0.875 0
0.6875 -0.8125 0
0.75 -0.8125 0
0.625 -0.8125 0
0.6875 -0.8125 0
0.625 -0.75 0
0.6875 -0.75 0
0.6875 -0.8125 0
0.75 -0.8125 0
0.6875 -0.75 0
0.75 -0.75 0
0.9375 -0.75 0
1 -0.75 0
0.9375 -0.6875 0
1 -0.6875 0
0.9375 -0.6875 0
1 -0.6875 0
0.9375 -0.625 0
1 -0.625 0
-1 0.625 0
-0.9375 0.625 0
-1 0.6875 0
-0.9375 0.6875 0
-1 0.6875 0
-0.9375 0.6875 0
-1 0.75 0
-0.9375 0.75 0
-0.75 0.75 0
-0.6875 0.75 0
-0.75 0.8125 0
-0.6875 0.8125 0
-0.6875 0.75 0
-0.625 0.75 0
-0.6875 0.8125 0
-0.625 0.8125 0
-0.75 0.8125 0
-0.6875 0.8125 0
-0.75 0.875 0
-0.6875 0.875 0
-0.625 0.75 0
-0.5625 0.75 0
-0.625 0.8125 0
-0.5625 0.8125 0
0.4375 0.625 0
0.5 0.625 0
0.4375 0.6875 0
0.5 0.6875 0
0.375 0.6875 0
0.4375 0.6875 0
0.375 0.75 0
0.4375 0.75 0
0.4375 0.6875 0
0.5 0.6875 0
0.4375 0.75 0
0.5 0.75 0
0.625 0.625 0
0.6875 0.625 0
0.625 0.6875 0
0.6875 0.6875 0
0.625 0.6875 0
0.6875 0.6875 0
0.625 0.75 0
0.6875 0.75 0
0.6875 0.6875 0
0.75 0.6875 0
0.6875 0.75 0
0.75 0.75 0
0.75 0.8125 0
0.8125 0.8125 0
0.75 0.875 0
0.8125 0.875 0
0.9375 0.75 0
1 0.75 0
0.9375 0.8125 0
1 0.8125 0
0.9375 0.8125 0
1 0.8125 0
0.9375 0.875 0
1 0.875 0
-0.875 -1 0
-0.8125 -1 0
-0.875 -0.9375 0
-0.8125 -0.9375 0
-0.8125 -1 0
-0.75 -1 0
-0.8125 -0.9375 0
-0.75 -0.9375 0
-0.8125 -0.9375 0
-0.75 -0.9375 0
-0.8125 -0.875 0
-0.75 -0.875 0
-0.625 -0.75 0
-0.5625 -0.75 0
-0.625 -0.6875 0
-0.5625 -0.6875 0
-0.5625 -0.75 0
-0.5 -0.75 0
-0.5625 -0.6875 0
-0.5 -0.6875 0
-0.625 -0.6875 0
-0.5625 -0.6875 0
-0.625 -0.625 0
-0.5625 -0.625 0
-0.5625 -0.6875 0
-0.5 -0.6875 0
-0.5625 -0.625 0
-0.5 -0.625 0
-0.25 -0.875 0
-0.1875 -0.875 0
-0.25 -0.8125 0
-0.1875 -0.8125 0
-0.1875 -0.875 0
-0.125 -0.875 0
-0.1875 -0.8125 0
-0.125 -0.8125 0
-0.25 -0.8125 0
-0.1875 -0.8125 0
-0.25 -0.75 0
-0.1875 -0.75 0
-0.1875 -0.8125 0
-0.125 -0.8125 0
-0.1875 -0.75 0
-0.125 -0.75 0
0.75 -0.875 0
0.8125 -0.875 0
0.75 -0.8125 0
0.8125 -0.8125 0
0.8125 -0.875 0
0.875 -0.875 0
0.8125 -0.8125 0
0.875 -0.8125 0
0.75 -0.8125 0
0.8125 -0.8125 0
0.75 -0.75 0
0.8125 -0.75 0
-0.8125 0.75 0
-0.75 0.75 0
-0.8125 0.8125 0
-0.75 0.8125 0
-0.875 0.8125 0
-0.8125 0.8125 0
-0.875 0.875 0
-0.8125 0.875 0
-0.8125 0.8125 0
-0.75 0.8125 0
-0.8125 0.875 0
-0.75 0.875 0
0.125 0.75 0
0.1875 0.75 0
0.125 0.8125 0
0.1875 0.8125 0
0.1875 0.75 0
0.25 0.75 0
0.1875 0.8125 0
0.25 0.8125 0
0.125 0.8125 0
0.1875 0.8125 0
0.125 0.875 0
0.1875 0.875 0
0.1875 0.8125 0
0.25 0.8125 0
0.1875 0.875 0
0.25 0.875 0
0.5 0.625 0
0.5625 0.625 0
0.5 0.6875 0
0.5625 0.6875 0
0.5625 0.625 0
0.625 0.625 0
0.5625 0.6875 0
0.625 0.6875 0
0.5 0.6875 0
0.5625 0.6875 0
0.5 0.75 0
0.5625 0.75 0
0.5625 0.6875 0
0.625 0.6875 0
0.5625 0.75 0
0.625 0.75 0
0.75 0.875 0
0.8125 0.875 0
0.75 0.9375 0
0.8125 0.9375 0
0.75 0.9375 0
0.8125 0.9375 0
0.75 1 0
0.8125 1 0
0.8125 0.9375 0
0.875 0.9375 0
0.8125 1 0
0.875 1 0
-1 -1 0
-0.9375 -1 0
-1 -0.9375 0
-0.9375 -0.9375 0
-0.9375 -1 0
-0.875 -1 0
-0.9375 -0.9375 0
-0.875 -0.9375 0
-1 -0.9375 0
-0.9375 -0.9375 0
-1 -0.875 0
-0.9375 -0.875 0
-0.9375 -0.9375 0
-0.875 -0.9375 0
-0.9375 -0.875 0
-0.875 -0.875 0
-0.75 -1 0
-0.6875 -1 0
-0.75 -0.9375 0
-0.6875 -0.9375 0
-0.6875 -1 0
-0.625 -1 0
-0.6875 -0.9375 0
-0.625 -0.9375 0
-0.75 -0.9375 0
-0.6875 -0.9375 0
-0.75 -0.875 0
-0.6875 -0.875 0
-0.6875 -0.9375 0
-0.625 -0.9375 0
-0.6875 -0.875 0
-0.625 -0.875 0
-0.75 -0.875 0
-0.6875 -0.875 0
-0.75 -0.8125 0
-0.6875 -0.8125 0
-0.6875 -0.875 0
-0.625 -0.875 0
-0.6875 -0.8125 0
-0.625 -0.8125 0
-0.75 -0.8125 0
-0.6875 -0.8125 0
-0.75 -0.75 0
-0.6875 -0.75 0
-0.6875 -0.8125 0
-0.625 -0.8125 0
-0.6875 -0.75 0
-0.625 -0.75 0
-0.625 -0.875 0
-0.5625 -0.875 0
-0.625 -0.8125 0
-0.5625 -0.8125 0
-0.5625 -0.875 0
-0.5 -0.875 0
-0.5625 -0.8125 0
-0.5 -0.8125 0
-0.625 -0.8125 0
-0.5625 -0.8125 0
-0.625 -0.75 0
-0.5625 -0.75 0
-0.5625 -0.8125 0
-0.5 -0.8125 0
-0.5625 -0.75 0
-0.5 -0.75 0
-0.5 -0.875 0
-0.4375 -0.875 0
-0.5 -0.8125 0
-0.4375 -0.8125 0
-0.4375 -0.875 0
-0.375 -0.875 0
-0.4375 -0.8125 0
-0.375 -0.8125 0
-0.5 -0.8125 0
-0.4375 -0.8125 0
-0.5 -0.75 0
-0.4375 -0.75 0
-0.4375 -0.8125 0
-0.375 -0.8125 0
-0.4375 -0.75 0
-0.375 -0.75 0
-0.375 -0.875 0
-0.3125 -0.875 0
-0.375 -0.8125 0
-0.3125 -0.8125 0
-0.3125 -0.875 0
-0.25 -0.875 0
-0.3125 -0.8125 0
-0.25 -0.8125 0
-0.375 -0.8125 0
-0.3125 -0.8125 0
-0.375 -0.75 0
-0.3125 -0.75 0
-0.3125 -0.8125 0
-0.25 -0.8125 0
-0.3125 -0.75 0
-0.25 -0.75 0
-0.25 -1 0
-0.1875 -1 0
-0.25 -0.9375 0
-0.1875 -0.9375 0
-0.1875 -1 0
-0.125 -1 0
-0.1875 -0.9375 0
-0.125 -0.9375 0
-0.25 -0.9375 0
-0.1875 -0.9375 0
-0.25 -0.875 0
-0.1875 -0.875 0
-0.1875 -0.9375 0
-0.125 -0.9375 0
-0.1875 -0.875 0
-0.125 -0.875 0
-0.125 -1 0
-0.0625 -1 0
-0.125 -0.9375 0
-0.0625 -0.9375 0
-0.0625 -1 0
0 -1 0
-0.0625 -0.9375 0
0 -0.9375 0
-0.125 -0.9375 0
-0.0625 -0.9375 0
-0.125 -0.875 0
-0.0625 -0.875 0
-0.0625 -0.9375 0
0 -0.9375 0
-0.0625 -0.875 0
0 -0.875 0
0 -1 0
0.0625 -1 0
0 -0.9375 0
0.0625 -0.9375 0
0.0625 -1 0
0.125 -1 0
0.0625 -0.9375 0
0.125 -0.9375 0
0 -0.9375 0
0.0625 -0.9375 0
0 -0.875 0
0.0625 -0.875 0
0.0625 -0.9375 0
0.125 -0.9375 0
0.0625 -0.875 0
0.125 -0.875 0
0.125 -1 0
0.1875 -1 0
0.125 -0.9375 0
0.1875 -0.9375 0
0.1875 -1 0
0.25 -1 0
0.1875 -0.9375 0
0.25 -0.9375 0
0.125 -0.9375 0
0.1875 -0.9375 0
0.125 -0.875 0
0.1875 -0.875 0
0.1875 -0.9375 0
0.25 -0.9375 0
0.1875 -0.875 0
0.25 -0.875 0
0.25 -1 0
0.3125 -1 0
0.25 -0.9375 0
0.3125 -0.9375 0
0.3125 -1 0
0.375 -1 0
0.3125 -0.9375 0
0.375 -0.9375 0
0.25 -0.9375 0
0.3125 -0.9375 0
0.25 -0.875 0
0.3125 -0.875 0
0.3125 -0.9375 0
0.375 -0.9375 0
0.3125 -0.875 0
0.375 -0.875 0
0.375 -1 0
0.4375 -1 0
0.375 -0.9375 0
0.4375 -0.9375 0
0.4375 -1 0
0.5 -1 0
0.4375 -0.9375 0
0.5 -0.9375 0
0.375 -0.9375 0
0.4375 -0.9375 0
0.375 -0.875 0
0.4375 -0.875 0
0.4375 -0.9375 0
0.5 -0.9375 0
0.4375 -0.875 0
0.5 -0.875 0
0.5 -1 0
0.5625 -1 0
0.5 -0.9375 0
0.5625 -0.9375 0
0.5625 -1 0
0.625 -1 0
0.5625 -0.9375 0
0.625 -0.9375 0
0.5 -0.9375 0
0.5625 -0.9375 0
0.5 -0.875 0
0.5625 -0.875 0
0.5625 -0.9375 0
0.625 -0.9375 0
0.5625 -0.875 0
0.625 -0.875 0
0.625 -1 0
0.6875 -1 0
0.625 -0.9375 0
0.6875 -0.9375 0
0.6875 -1 0
0.75 -1 0
0.6875 -0.9375 0
0.75 -0.9375 0
0.625 -0.9375 0
0.6875 -0.9375 0
0.625 -0.875 0
0.6875 -0.875 0
0.6875 -0.9375 0
0.75 -0.9375 0
0.6875 -0.875 0
0.75 -0.875 0
0.75 -1 0
0.8125 -1 0
0.75 -0.9375 0
0.8125 -0.9375 0
0.8125 -1 0
0.875 -1 0
0.8125 -0.9375 0
0.875 -0.9375 0
0.75 -0.9375 0
0.8125 -0.9375 0
0.75 -0.875 0
0.8125 -0.875 0
0.8125 -0.9375 0
0.875 -0.9375 0
0.8125 -0.875 0
0.875 -0.875 0
0.875 -0.875 0
0.9375 -0.875 0
0.875 -0.8125 0
0.9375 -0.8125 0
0.9375 -0.875 0
1 -0.875 0
0.9375 -0.8125 0
1 -0.8125 0
0.875 -0.8125 0
0.9375 -0.8125 0
0.875 -0.75 0
0.9375 -0.75 0
0.9375 -0.8125 0
1 -0.8125 0
0.9375 -0.75 0
1 -0.75 0
-1 0.75 0
-0.9375 0.75 0
-1 0.8125 0
-0.9375 0.8125 0
-0.9375 0.75 0
-0.875 0.75 0
-0.9375 0.8125 0
-0.875 0.8125 0
-1 0.8125 0
-0.9375 0.8125 0
-1 0.875 0
-0.9375 0.875 0
-0.9375 0.8125 0
-0.875 0.8125 0
-0.9375 0.875 0
-0.875 0.875 0
-0.875 0.875 0
-0.8125 0.875 0
-0.875 0.9375 0
-0.8125 0.9375 0
-0.8125 0.875 0
-0.75 0.875 0
-0.8125 0.9375 0
-0.75 0.9375 0
-0.875 0.9375 0
-0.8125 0.9375 0
-0.875 1 0
-0.8125 1 0
-0.8125 0.9375 0
-0.75 0.9375 0
-0.8125 1 0
-0.75 1 0
-0.75 0.875 0
-0.6875 0.875 0
-0.75 0.9375 0
-0.6875 0.9375 0
-0.6875 0.875 0
-0.625 0.875 0
-0.6875 0.9375 0
-0.625 0.9375 0
-0.75 0.9375 0
-0.6875 0.9375 0
-0.75 1 0
-0.6875 1 0
-0.6875 0.9375 0
-0.625 0.9375 0
-0.6875 1 0
-0.625 1 0
-0.625 0.875 0
-0.5625 0.875 0
-0.625 0.9375 0
-0.5625 0.9375 0
-0.5625 0.875 0
-0.5 0.875 0
-0.5625 0.9375 0
-0.5 0.9375 0
-0.625 0.9375 0
-0.5625 0.9375 0
-0.625 1 0
-0.5625 1 0
-0.5625 0.9375 0
-0.5 0.9375 0
-0.5625 1 0
-0.5 1 0
-0.5 0.875 0
-0.4375 0.875 0
-0.5 0.9375 0
-0.4375 0.9375 0
-0.4375 0.875 0
-0.375 0.875 0
-0.4375 0.9375 0
-0.375 0.9375 0
-0.5 0.9375 0
-0.4375 0.9375 0
-0.5 1 0
-0.4375 1 0
-0.4375 0.9375 0
-0.375 0.9375 0
-0.4375 1 0
-0.375 1 0
-0.375 0.875 0
-0.3125 0.875 0
-0.375 0.9375 0
-0.3125 0.9375 0
-0.3125 0.875 0
-0.25 0.875 0
-0.3125 0.9375 0
-0.25 0.9375 0
-0.375 0.9375 0
-0.3125 0.9375 0
-0.375 1 0
-0.3125 1 0
-0.3125 0.9375 0
-0.25 0.9375 0
-0.3125 1 0
-0.25 1 0
-0.25 0.875 0
-0.1875 0.875 0
-0.25 0.9375 0
-0.1875 0.9375 0
-0.1875 0.875 0
-0.125 0.875 0
-0.1875 0.9375 0
-0.125 0.9375 0
-0.25 0.9375 0
-0.1875 0.9375 0
-0.25 1 0
-0.1875 1 0
-0.1875 0.9375 0
-0.125 0.9375 0
-0.1875 1 0
-0.125 1 0
-0.125 0.875 0
-0.0625 0.875 0
-0.125 0.9375 0
-0.0625 0.9375 0
-0.0625 0.875 0
0 0.875 0
-0.0625 0.9375 0
0 0.9375 0
-0.125 0.9375 0
-0.0625 0.9375 0
-0.125 1 0
-0.0625 1 0
-0.0625 0.9375 0
0 0.9375 0
-0.0625 1 0
0 1 0
0 0.875 0
0.0625 0.875 0
0 0.9375 0
0.0625 0.9375 0
0.0625 0.875 0
0.125 0.875 0
0.0625 0.9375 0
0.125 0.9375 0
0 0.9375 0
0.0625 0.9375 0
0 1 0
0.0625 1 0
[...]
POINT_DATA 25204
SCALARS x_displacement double 1
LOOKUP_TABLE default
0 0 0.00157532 0.00176868 0 0 0.00176868 0.00187583 0 0 0.00187583 0.00184858 0 0 3.97151e-05 0 0 3.972e-05 0 0 0.00184858 0.00187583 0 0 0.00187583 0.00176868 0 0 0.00176868 0.00157532 0 0 0.0130899 0.0133038 0.0107274 0.0112152 0 0.000472286 0 0.000595288 0 0.000595288 0 0.00070864 0.00107471 0.00127186 0.00147083 0.00178604 0.0022691 0.00264807 0.00275905 0.00325365 0.00264807 0.00297737 0.00325365 0.00369916 0.00325365 0.00369916 0.00390367 0.00447411 0.00350824 0.00370451 0.00443742 0.0047238 0.00370451 0.00384617 0.0047238 0.00493971 0.00443742 0.0047238 0.00544625 0.00583336 1.42809e-05 -8.11978e-06 0.000289552 0.000226637 -9.91791e-05 -5.06131e-05 9.09181e-07 3.33818e-05 -8.11978e-06 9.09181e-07 0.000226637 0.000201042 9.09181e-07 3.33818e-05 0.000201042 0.000196561 0.000118775 0 0.000189097 0 0.000189097 0 0.000284375 0 0 0.000284382 0 0.000189102 0 0.000189102 0 0.00011878 0.000196577 0.000201058 3.3392e-05 9.19014e-07 0.000201058 0.000226651 9.19014e-07 -8.11237e-06 3.3392e-05 9.19014e-07 -5.06067e-05 -9.91735e-05 0.000226651 0.000289561 -8.11237e-06 1.42831e-05 0.00583336 0.00544624 0.0047238 0.00443742 0.0049397 0.0047238 0.00384617 0.00370451 0.0047238 0.00443742 0.00370451 0.00350824 0.00447411 0.00390366 0.00369915 0.00325365 0.00369915 0.00325365 0.00297737 0.00264806 0.00325365 0.00275904 0.00264806 0.00226909 0.00178604 0.00147083 0.00127186 0.00107471 0.000708639 0 0.000595287 0 0.000595287 0 0.000472285 0 0 0 0.000489607 0.000602728 0 0 0.000602728 0.000687647 0.000602728 0.000687647 0.00107471 0.00127186 0.00297737 0.00326365 0.00369916 0.00409381 0.00326365 0.00350824 0.00409381 0.00443742 0.00369916 0.00409381 0.00447411 0.00498896 0.00409381 0.00443742 0.00498896 0.00544625 0.00184858 0.00177658 0.00283659 0.00274726 0.00177658 0.00165716 0.00274726 0.00259181 0.00283659 0.00274726 0.00391507 0.00382095 0.00274726 0.00259181 0.00382095 0.00363926 -5.06131e-05 1.99729e-06 3.33818e-05 6.66394e-05 1.99729e-06 3.97151e-05 6.66394e-05 8.22703e-05 3.33818e-05 6.66394e-05 0.000196561 0.000193483 0.000193495 0.000196577 6.66484e-05 3.3392e-05 8.22769e-05 6.66484e-05 3.972e-05 2.00334e-06 6.66484e-05 3.3392e-05 2.00334e-06 -5.06067e-05 0.00363926 0.00382095 0.00259181 0.00274726 0.00382095 0.00391507 0.00274726 0.0028366 0.00259181 0.00274726 0.00165716 0.00177659 0.00274726 0.0028366 0.00177659 0.00184858 0.00544624 0.00498895 0.00443742 0.00409381 0.00498895 0.00447411 0.00409381 0.00369915 0.00443742 0.00409381 0.00350824 0.00326364 0.00409381 0.00369915 0.00326364 0.00297737 0.00127186 0.00107471 0.000687645 0.000602727 0.000687645 0.000602727 0 0 0.000602727 0.000489606 0 0 0 0 0 0.000313813 0 0 0.000313813 0.000489607 0 0.000313813 0 0.000472286 0.000313813 0.000489607 0.000472286 0.00081938 0 0 0.000687647 0.000750458 0 0 0.000750458 0.000787659 0.000687647 0.000750458 0.00127186 0.00143342 0.000750458 0.000787659 0.00143342 0.00157532 0.00127186 0.00143342 0.00178604 0.0020518 0.00143342 0.00157532 0.0020518 0.0022761 0.00178604 0.0020518 0.0022691 0.00264807 0.0020518 0.0022761 0.00264807 0.00297737 0.00157532 0.001672 0.0022761 0.00246917 0.001672 0.00176868 0.00246917 0.00262489 0.0022761 0.00246917 0.00297737 0.00326365 0.00246917 0.00262489 0.00326365 0.00350824 0.00176868 0.00182225 0.00262489 0.00275076 0.00182225 0.00187583 0.00275076 0.00282959 0.00262489 0.00275076 0.00350824 0.00370451 0.00275076 0.00282959 0.00370451 0.00384617 0.00187583 0.0018622 0.00282959 0.00286502 0.0018622 0.00184858 0.00286502 0.00283659 0.00282959 0.00286502 0.00384617 0.00392232 0.00286502 0.00283659 0.00392232 0.00391507 0 0 0.000924288 0.000873252 0 0 0.000873252 0.000804023 0.000924288 0.000873252 0.00184858 0.00177658 0.000873252 0.000804023 0.00177658 0.00165716 0 0 0.000804023 0.00071453 0 0 0.00071453 0.000608285 0.000804023 0.00071453 0.00165716 0.00150114 0.00071453 0.000608285 0.00150114 0.00130818 0 0 0.000608285 0.000489747 0 0 0.000489747 0.000365624 0.000608285 0.000489747 0.00130818 0.00109146 0.000489747 0.000365624 0.00109146 0.000863392 0 0 0.000365624 0.00024319 0 0 0.00024319 0.000129502 0.000365624 0.00024319 0.000863392 0.000637034 0.00024319 0.000129502 0.000637034 0.000424975 0 0 0.000129502 3.07764e-05 0 0 3.07764e-05 -4.80991e-05 0.000129502 3.07764e-05 0.000424975 0.000238235 3.07764e-05 -4.80991e-05 0.000238235 8.53981e-05 0 0 -4.80991e-05 -0.00010393 0 0 -0.00010393 -0.000135416 -4.80991e-05 -0.00010393 8.53981e-05 -2.80073e-05 -0.00010393 -0.000135416 -2.80073e-05 -9.9877e-05 0 0 -0.000135416 -0.000143382 0 0 -0.000143382 -0.000130571 -0.000135416 -0.000143382 -9.9877e-05 -0.000131598 -0.000143382 -0.000130571 -0.000131598 -0.000128067 0 0 -0.000130571 -0.000101068 0 0 -0.000101068 -6.13559e-05 -0.000130571 -0.000101068 -0.000128067 -9.91791e-05 -0.000101068 -6.13559e-05 -9.91791e-05 -5.06131e-05 0 0 -6.13559e-05 -1.83604e-05 0 0 -1.83604e-05 1.98575e-05 -6.13559e-05 -1.83604e-05 -5.06131e-05 1.99729e-06 -1.83604e-05 1.98575e-05 1.99729e-06 3.97151e-05 3.97151e-05 1.98575e-05 8.22703e-05 7.0014e-05 1.98575e-05 0 7.0014e-05 0 8.22703e-05 7.0014e-05 0.000175427 0.000118775 7.0014e-05 0 0.000118775 0 0 0.00011878 0 7.00175e-05 0.00011878 0.000175436 7.00175e-05 8.22769e-05 0 7.00175e-05 0 1.986e-05 7.00175e-05 8.22769e-05 1.986e-05 3.972e-05 3.972e-05 2.00334e-06 1.986e-05 -1.83572e-05 2.00334e-06 -5.06067e-05 -1.83572e-05 -6.13526e-05 1.986e-05 -1.83572e-05 0 0 -1.83572e-05 -6.13526e-05 0 0 -5.06067e-05 -9.91735e-05 -6.13526e-05 -0.000101066 -9.91735e-05 -0.000128064 -0.000101066 -0.000130569 -6.13526e-05 -0.000101066 0 0 -0.000101066 -0.000130569 0 0 -0.000128064 -0.000131599 -0.000130569 -0.000143383 -0.000131599 -9.98836e-05 -0.000143383 -0.00013542 -0.000130569 -0.000143383 0 0 -0.000143383 -0.00013542 0 0 -9.98836e-05 -2.80207e-05 -0.00013542 -0.000103938 -2.80207e-05 8.53778e-05 -0.000103938 -4.81108e-05 -0.00013542 -0.000103938 0 0 -0.000103938 -4.81108e-05 0 0 8.53778e-05 0.000238209 -4.81108e-05 3.07619e-05 0.000238209 0.000424947 3.07619e-05 0.000129486 -4.81108e-05 3.07619e-05 0 0 3.07619e-05 0.000129486 0 0 0.000424947 0.000637006 0.000129486 0.000243175 0.000637006 0.000863369 0.000243175 0.000365612 0.000129486 0.000243175 0 0 0.000243175 0.000365612 0 0 0.000863369 0.00109144 0.000365612 0.000489739 0.00109144 0.00130817 0.000489739 0.000608281 0.000365612 0.000489739 0 0 0.000489739 0.000608281 0 0 0.00130817 0.00150113 0.000608281 0.00071453 0.00150113 0.00165716 0.00071453 0.000804025 0.000608281 0.00071453 0 0 0.00071453 0.000804025 0 0 0.00165716 0.00177659 0.000804025 0.000873255 0.00177659 0.00184858 0.000873255 0.00092429 0.000804025 0.000873255 0 0 0.000873255 0.00092429 0 0 0.00391507 0.00392232 0.0028366 0.00286502 0.00392232 0.00384617 0.00286502 0.00282959 0.0028366 0.00286502 0.00184858 0.00186221 0.00286502 0.00282959 0.00186221 0.00187583 0.00384617 0.00370451 0.00282959 0.00275076 0.00370451 0.00350824 0.00275076 0.00262489 0.00282959 0.00275076 0.00187583 0.00182226 0.00275076 0.00262489 0.00182226 0.00176868 0.00350824 0.00326364 0.00262489 0.00246917 0.00326364 0.00297737 0.00246917 0.00227609 0.00262489 0.00246917 0.00176868 0.001672 0.00246917 0.00227609 0.001672 0.00157532 0.00297737 0.00264806 0.00227609 0.00205179 0.00264806 0.00226909 0.00205179 0.00178604 0.00227609 0.00205179 0.00157532 0.00143342 0.00205179 0.00178604 0.00143342 0.00127186 0.00157532 0.00143342 0.000787658 0.000750457 0.00143342 0.00127186 0.000750457 0.000687645 0.000787658 0.000750457 0 0 0.000750457 0.000687645 0 0 0.000819379 0.000472285 0.000489606 0.000313812 0.000472285 0 0.000313812 0 0.000489606 0.000313812 0 0 0.000313812 0 0 0 0.00889193 0.00947665 0.00972136 0.0103623 0.00947665 0.010034 0.0103623 0.0109703 0.00972136 0.0103623 0.0106523 0.0113636 0.0103623 0.0109703 0.0113636 0.0120277 0.010034 0.0105647 0.0109703 0.0115443 0.0105647 0.0110671 0.0115443 0.012088 0.0109703 0.0115443 0.0120277 0.0126467 0.00861624 0.0102296 0.00899535 0.0107122 0.00588299 0.00753604 0.00594831 0.0076322 0.00594831 0.0076322 0.00592688 0.00760841 0.010937 0.0119361 0.0119817 0.0131316 0.010378 0.0117388 0.0111573 0.0126891 0.0117388 0.0130925 0.0126891 0.0142325 0.0111573 0.0126891 0.0118801 0.0135814 0.0110671 0.0115406 0.012088 0.0125887 0.012381 0.0127386 0.0134763 0.0138463 0.0132518 0.0129753 0.0143191 0.0140163 0.0129753 0.0126359 0.0140163 0.0136471 0.0143191 0.0140163 0.0154024 0.01507 0.0182361 0.0182594 0.0194753 0.01943 0.0182594 0.0182064 0.01943 0.0193176 0.0182064 0.0180692 0.0193176 0.0191295 0.0180692 0.0178441 0.0191295 0.018858 0.0104932 0.0100784 0.0113817 0.0109673 0.00812631 0.00785718 0.00917273 0.0089312 0.00785718 0.00759213 0.0089312 0.00868634 0.00917273 0.0089312 0.0103315 0.0101326 0.0089312 0.00868634 0.0101326 0.0099264 0.0103315 0.0101326 0.011613 0.0114799 0.00759213 0.00732684 0.00868634 0.00843919 0.00732684 0.00705998 0.00843919 0.00817451 0.0134975 0.0133059 0.0145319 0.014415 0.0145319 0.014415 0.0156005 0.0155613 0.0159916 0.016232 0.0175618 0.0179725 0.00426718 0.00403407 0.00504843 0.00478311 0.00403407 0.00379803 0.00478311 0.00450946 0.00504843 0.00478311 0.00594632 0.00564365 0.00478311 0.00450946 0.00564365 0.00532586 0.00463049 0.00425075 0.00543411 0.00497984 0.00425075 0.00384906 0.00497984 0.00449778 0.00497984 0.00449778 0.00579884 0.00522375 0.00579884 0.00522375 0.00671719 0.00602944 0.00671719 0.00602944 0.00773176 0.0069108 0.00773176 0.0069108 0.00883431 0.00785724 0.00883431 0.00785724 0.0100044 0.00884749 0.0100044 0.00884749 0.0111986 0.00985127 0.00519952 0.00432444 0.005857 0.00484999 0.00432444 0.00344593 0.00484999 0.00384811 0.005857 0.00484999 0.00653114 0.00538449 0.00484999 0.00384811 0.00538449 0.0042543 0.00884749 0.00768805 0.00985127 0.00851387 0.00768805 0.00653114 0.00851387 0.0071988 0.00985127 0.00851387 0.0108115 0.00929973 0.00851387 0.0071988 0.00929973 0.00783385 0.00553351 0.00705103 0.00574016 0.00733591 0.00705103 0.00861624 0.00733591 0.00899535 0.00574016 0.00733591 0.00588299 0.00753604 0.00733591 0.00899535 0.00753604 0.0092597 0.00783385 0.00640562 0.00839914 0.00684463 0.00640562 0.00502317 0.00684463 0.0053521 0.00839914 0.00684463 0.00885582 0.00720511 0.00684463 0.0053521 0.00720511 0.00562152 0.00720511 0.00562152 0.00746554 0.00581667 0.00746554 0.00581667 0.00760843 0.0059269 0.00592688 0.00760841 0.00581666 0.00746552 0.00581666 0.00746552 0.00562151 0.00720509 0.00562151 0.00720509 0.00535208 0.0068446 0.00720509 0.00885579 0.0068446 0.00839911 0.00535208 0.0068446 0.00502315 0.0064056 0.0068446 0.00839911 0.0064056 0.00783382 0.00882651 0.00989809 0.00959048 0.0107978 0.00989809 0.010937 0.0107978 0.0119817 0.00959048 0.0107978 0.010378 0.0117388 0.0107978 0.0119817 0.0117388 0.0130925 0.00783382 0.0092997 0.00719878 0.00851385 0.0092997 0.0108114 0.00851385 0.00985124 0.00719878 0.00851385 0.00653113 0.00768803 0.00851385 0.00985124 0.00768803 0.00884747 0.00425429 0.00538448 0.0038481 0.00484998 0.00538448 0.00653113 0.00484998 0.00585699 0.0038481 0.00484998 0.00344593 0.00432444 0.00484998 0.00585699 0.00432444 0.00519952 0.00985124 0.0111986 0.00884747 0.0100044 0.00884747 0.0100044 0.00785722 0.00883429 0.00785722 0.00883429 0.0069108 0.00773176 0.0069108 0.00773176 0.00602945 0.0067172 0.00602945 0.0067172 0.00522377 0.00579886 0.00522377 0.00579886 0.00449781 0.00497988 0.00449781 0.00497988 0.00384909 0.00425079 0.00497988 0.00543416 0.00425079 0.00463054 0.00532594 0.00564375 0.00450954 0.00478322 0.00564375 0.00594646 0.00478322 0.00504856 0.00450954 0.00478322 0.00379812 0.00403417 0.00478322 0.00504856 0.00403417 0.0042673 0.0179709 0.0175566 0.0162318 0.0159934 0.0175566 0.0171969 0.0159934 0.0157852 0.0171969 0.0169141 0.0157852 0.0156328 0.0169141 0.0167408 0.0156328 0.01556 0.01556 0.0155999 0.0144176 0.0145329 0.0144176 0.0145329 0.0133038 0.0135001 0.00817487 0.00843967 0.00706031 0.00732724 0.00843967 0.008687 0.00732724 0.00759259 0.0114809 0.011615 0.0101338 0.0103335 0.00992714 0.0101338 0.008687 0.00893205 0.0101338 0.0103335 0.00893205 0.00917368 0.008687 0.00893205 0.00759259 0.00785767 0.00893205 0.00917368 0.00785767 0.00812654 0.0109667 0.0113812 0.010078 0.0104928 0.0188581 0.0191296 0.0178442 0.0180693 0.0191296 0.0193177 0.0180693 0.0182065 0.0193177 0.0194301 0.0182065 0.0182595 0.0194301 0.0194754 0.0182595 0.0182362 0.01507 0.0154025 0.0140164 0.0143191 0.0136472 0.0140164 0.0126359 0.0129753 0.0140164 0.0143191 0.0129753 0.0132518 0.0138463 0.0134763 0.0127386 0.012381 0.0125887 0.012088 0.0115406 0.0110671 0.0135815 0.0118801 0.0126892 0.0111573 0.0142325 0.0126892 0.0130926 0.0117388 0.0126892 0.0111573 0.0117388 0.0103781 0.0131316 0.0119817 0.0119361 0.0109371 0.00760843 0.0059269 0.00763222 0.00594832 0.00763222 0.00594832 0.00753606 0.005883 0.0107122 0.00899537 0.0102296 0.00861626 0.0126467 0.0120277 0.0115443 0.0109703 0.012088 0.0115443 0.0110671 0.0105647 0.0115443 0.0109703 0.0105647 0.010034 0.0120277 0.0113636 0.0109703 0.0103623 0.0113636 0.0106523 0.0103623 0.00972137 0.0109703 0.0103623 0.010034 0.00947664 0.0103623 0.00972137 0.00947664 0.00889193 0.00911715 0.00990395 0.00998215 0.0108647 0.00990395 0.0106523 0.0108647 0.011703 0.00998215 0.0108647 0.010937 0.0119361 0.0127386 0.0130453 0.0138463 0.0141634 0.0130453 0.0132937 0.0141634 0.014418 0.0138463 0.0141634 0.015044 0.015356 0.0141634 0.014418 0.015356 0.0156033 0.015356 0.0156033 0.0166266 0.016847 0.0106907 0.0103579 0.0116478 0.0112878 0.0103579 0.00998933 0.0112878 0.0108935 0.0116478 0.0112878 0.0126359 0.0122468 0.00998933 0.00959769 0.0108935 0.0104754 0.00959769 0.00919426 0.0104754 0.0100496 0.0104754 0.0100496 0.0113754 0.0109303 0.00919426 0.00878889 0.0100496 0.00962704 0.00878889 0.00839001 0.00962704 0.00921749 0.0100496 0.00962704 0.0109303 0.0104932 0.00962704 0.00921749 0.0104932 0.0100784 0.00216727 0.00184572 0.00255082 0.00216401 0.00184572 0.00150907 0.00216401 0.00176149 0.00255082 0.00216401 0.00298184 0.00252011 0.00216401 0.00176149 0.00252011 0.00204241 0.00298184 0.00252011 0.00346276 0.00291545 0.00252011 0.00204241 0.00291545 0.00235281 0.00346276 0.00291545 0.00399444 0.00334995 0.00291545 0.00235281 0.00334995 0.0026922 0.00399444 0.00334995 0.00457519 0.00382138 0.00334995 0.0026922 0.00382138 0.00305793 0.00457519 0.00382138 0.00519952 0.00432444 0.00382138 0.00305793 0.00432444 0.00344593 0.00344593 0.00432444 0.00305793 0.00382138 0.00432444 0.00519952 0.00382138 0.00457519 0.00305793 0.00382138 0.00269221 0.00334996 0.00382138 0.00457519 0.00334996 0.00399445 0.00269221 0.00334996 0.00235282 0.00291546 0.00334996 0.00399445 0.00291546 0.00346277 0.00235282 0.00291546 0.00204242 0.00252013 0.00291546 0.00346277 0.00252013 0.00298186 0.00204242 0.00252013 0.00176151 0.00216402 0.00252013 0.00298186 0.00216402 0.00255084 0.00176151 0.00216402 0.00150908 0.00184574 0.00216402 0.00255084 0.00184574 0.00216729 0.010078 0.0104928 0.00921727 0.00962718 0.0104928 0.0109289 0.00962718 0.0100493 0.00921727 0.00962718 0.00838984 0.00878868 0.00962718 0.0100493 0.00878868 0.00919408 0.0100493 0.0104763 0.00919408 0.00959764 0.0104763 0.0108927 0.00959764 0.00998958 0.0122468 0.0126359 0.0112875 0.0116477 0.0108927 0.0112875 0.00998958 0.0103577 0.0112875 0.0116477 0.0103577 0.0106906 0.016847 0.0166266 0.0156033 0.015356 0.0156033 0.015356 0.0144181 0.0141634 0.015356 0.015044 0.0141634 0.0138463 0.0144181 0.0141634 0.0132937 0.0130453 0.0141634 0.0138463 0.0130453 0.0127386 0.0119361 0.0109371 0.0108647 0.00998216 0.011703 0.0108647 0.0106523 0.00990396 0.0108647 0.00998216 0.00990396 0.00911716 0.01358 0.013455 0.0146859 0.0145447 0.013455 0.0132518 0.0145447 0.0143191 0.0146859 0.0145447 0.0158162 0.0156531 0.0145447 0.0143191 0.0156531 0.0154024 0.0158759 0.0158899 0.0170652 0.0170528 0.0158899 0.0158162 0.0170528 0.0169531 0.0170652 0.0170528 0.0182594 0.0182064 0.0170528 0.0169531 0.0182064 0.0180692 0.0158162 0.0156531 0.0169531 0.0167618 0.0156531 0.0154024 0.0167618 0.0164817 0.0169531 0.0167618 0.0180692 0.0178441 0.0167618 0.0164817 0.0178441 0.0175259 0.0100784 0.00969017 0.0109673 0.0105916 0.00969017 0.0093315 0.0105916 0.0102536 0.0109673 0.0105916 0.0118814 0.0115282 0.0105916 0.0102536 0.0115282 0.0112239 0.0093315 0.00900021 0.0102536 0.00995005 0.00900021 0.00869248 0.00995005 0.00967432 0.0102536 0.00995005 0.0112239 0.010963 0.00995005 0.00967432 0.010963 0.0107353 0.0118814 0.0115282 0.0128177 0.0124976 0.0115282 0.0112239 0.0124976 0.0122415 0.0128177 0.0124976 0.0137729 0.0134975 0.0124976 0.0122415 0.0134975 0.0133059 0.0112239 0.010963 0.0122415 0.0120403 0.010963 0.0107353 0.0120403 0.011879 0.0122415 0.0120403 0.0133059 0.0131816 0.0120403 0.011879 0.0131816 0.0131066 0.00869248 0.00840303 0.00967432 0.00941804 0.00840303 0.00812631 0.00941804 0.00917273 0.00967432 0.00941804 0.0107353 0.0105287 0.00941804 0.00917273 0.0105287 0.0103315 0.0107353 0.0105287 0.011879 0.0117417 0.0105287 0.0103315 0.0117417 0.011613 0.011879 0.0117417 0.0131066 0.0130606 0.0117417 0.011613 0.0130606 0.0130233 0.0131066 0.0130606 0.0144133 0.0144831 0.0130606 0.0130233 0.0144831 0.0145687 0.0144133 0.0144831 0.0157851 0.0159916 0.0144831 0.0145687 0.0159916 0.016232 0.00337362 0.00317705 0.00401106 0.00379486 0.00317705 0.00299046 0.00379486 0.0035858 0.00401106 0.00379486 0.00473723 0.00450063 0.00379486 0.0035858 0.00450063 0.00426718 0.00299046 0.00281137 0.0035858 0.00338114 0.00281137 0.00263691 0.00338114 0.00317785 0.0035858 0.00338114 0.00426718 0.00403407 0.00338114 0.00317785 0.00403407 0.00379803 0.00473723 0.00450063 0.0055671 0.00530878 0.00450063 0.00426718 0.00530878 0.00504843 0.0055671 0.00530878 0.0065188 0.00623702 0.00530878 0.00504843 0.00623702 0.00594632 0.0069108 0.00606416 0.00785724 0.00686194 0.00606416 0.00519952 0.00686194 0.005857 0.00785724 0.00686194 0.00884749 0.00768805 0.00686194 0.005857 0.00768805 0.00653114 0.00653113 0.00768803 0.00585699 0.00686193 0.00768803 0.00884747 0.00686193 0.00785722 0.00585699 0.00686193 0.00519952 0.00606415 0.00686193 0.00785722 0.00606415 0.0069108 0.00594646 0.00623719 0.00504856 0.00530894 0.00623719 0.00651901 0.00530894 0.00556729 0.00504856 0.00530894 0.0042673 0.00450077 0.00530894 0.00556729 0.00450077 0.0047374 0.00379812 0.00403417 0.00317793 0.00338124 0.00403417 0.0042673 0.00338124 0.00358591 0.00317793 0.00338124 0.00263699 0.00281145 0.00338124 0.00358591 0.00281145 0.00299056 0.0042673 0.00450077 0.00358591 0.00379499 0.00450077 0.0047374 0.00379499 0.0040112 0.00358591 0.00379499 0.00299056 0.00317715 0.00379499 0.0040112 0.00317715 0.00337374 0.0162318 0.0159934 0.0145681 0.0144814 0.0159934 0.0157852 0.0144814 0.0144132 0.0145681 0.0144814 0.0130231 0.0130571 0.0144814 0.0144132 0.0130571 0.0130899 0.0157852 0.0156328 0.0144132 0.0143787 0.0156328 0.01556 0.0143787 0.0144176 0.0144132 0.0143787 0.0130899 0.0131969 0.0143787 0.0144176 0.0131969 0.0133038 0.0130231 0.0130571 0.011615 0.0117485 0.0130571 0.0130899 0.0117485 0.0119087 0.011615 0.0117485 0.0103335 0.010532 0.0117485 0.0119087 0.010532 0.0107274 0.0103335 0.010532 0.00917368 0.00941743 0.010532 0.0107274 0.00941743 0.00967646 0.00917368 0.00941743 0.00812654 0.00840349 0.00941743 0.00967646 0.00840349 0.00869209 0.0135889 0.0136243 0.0147128 0.0147416 0.0136243 0.01358 0.0147416 0.0146859 0.0147128 0.0147416 0.0158759 0.0158899 0.0147416 0.0146859 0.0158899 0.0158162 0.0133038 0.0135001 0.0122595 0.0125009 0.0135001 0.0137741 0.0125009 0.0128187 0.0122595 0.0125009 0.0112152 0.0115266 0.0125009 0.0128187 0.0115266 0.0118812 0.0107274 0.0109713 0.00967646 0.00994682 0.0109713 0.0112152 0.00994682 0.0102518 0.00967646 0.00994682 0.00869209 0.00899936 0.00994682 0.0102518 0.00899936 0.00933002 0.0112152 0.0115266 0.0102518 0.0105908 0.0115266 0.0118812 0.0105908 0.0109667 0.0102518 0.0105908 0.00933002 0.0096895 0.0105908 0.0109667 0.0096895 0.010078 0.017526 0.0178442 0.0164817 0.0167619 0.0178442 0.0180693 0.0167619 0.01695